/*--------------------------------*- C++ -*----------------------------------*\
| =========                 |                                                 |
| \\      /  F ield         | OpenFOAM: The Open Source CFD Toolbox           |
|  \\    /   O peration     | Version:  v1812                                 |
|   \\  /    A nd           | Web:      www.OpenFOAM.com                      |
|    \\/     M anipulation  |                                                 |
\*---------------------------------------------------------------------------*/
FoamFile
{
    version     2.0;
    format      ascii;
    class       pointScalarField;
    location    "0";
    object      pointSignedDist;
}
// * * * * * * * * * * * * * * * * * * * * * * * * * * * * * * * * * * * * * //

dimensions      [0 1 0 0 0 0 0];


internalField   nonuniform List<scalar> 
578
(
0.000640708159012781
0.000640708144763751
0.000786686045475108
0.00114351005412598
0.00159506058575697
0.00204492934064879
0.00234015986393586
0.00235127844372254
0.00223954847717324
0.00217921542848406
0.00203995421280428
0.00164174521417137
0.000986543905040588
0.000427059035601193
0.000190186198242573
0.000133910100603291
0.000127724788371961
0.000640708173261812
0.000647807710722412
0.000828262151529339
0.00126599686665526
0.00186195240948497
0.00252902260255142
0.00305771292803232
0.00313372274403792
0.00296177276016687
0.00292226052777879
0.00286943921604125
0.00247667303836883
0.00157114517191761
0.000677463953869759
0.000277095014413976
0.000178383253523765
0.000167193918581825
0.000786686145218322
0.000828262219424072
0.00115995480084688
0.00192793823900434
0.0030872069351927
0.00461528907189715
0.00618988072018403
0.00661008915071118
0.00611835615887991
0.00606120646414326
0.0063274257413742
0.00606940992095186
0.00418871871236432
0.00182057684431013
0.0006741853262715
0.00036545306778477
0.000318307021008111
0.00114351027456227
0.00126599705442484
0.00192793837144539
0.00340584743487582
0.00580023466631869
0.00939085059595785
0.0142983942299058
0.0162146680307405
0.0146078310929124
0.0141478557497854
0.0153108043125079
0.0163301029202246
0.0123459261797181
0.00548351859364164
0.00191393139109043
0.000884690508313145
0.000693431013567867
0.00159506100608372
0.0018619528216163
0.00308720737887993
0.00580023507613874
0.0103875081345344
0.0168307241323645
0.0220245848485158
0.107690704126118
0.0999982100198539
0.107692397036771
0.0177086212950025
0.0219833565102885
0.0216658935773386
0.0124073151040432
0.00435953871671275
0.00189135250514782
0.00138814503022615
0.00204493003664245
0.00252902337853192
0.00461529015470201
0.00939085199264767
0.0168307250842387
0.115162916619273
0.0753440343856191
0.047644257459825
0.0374993250322214
0.0476442492203212
0.0753470248394107
0.115162916619273
0.0220143747475679
0.0164292920606457
0.00629764780245846
0.00287947822115001
0.00213733089256393
0.00234016082997469
0.00305771417560685
0.00618988297236236
0.0142983980397426
0.0220245846499721
0.0753470266760432
0.0267762319930658
-0.0102440209935534
-0.0249995599554111
-0.0102440241702452
0.0267762319930658
0.0753440590624747
0.0177560561899759
0.0154336317533779
0.00659677288692688
0.00332706855710615
0.00259200794113287
0.00235127944370637
0.00313372429205373
0.00661009294153409
0.0162146777730133
0.107692394900957
0.047644257459825
-0.0102440209935534
-0.0616104526331414
-0.0874984449430436
-0.0616104526331414
-0.0102440348649545
0.047644257459825
0.107690704126118
0.0142827086909259
0.00635544703606107
0.00341449341562588
0.00276645367462137
0.00223954899911208
0.00296177375411953
0.00611835923099604
0.0146078406995049
0.0999982100198539
0.0374993250322214
-0.0249995599554111
-0.0874984449430436
-0.0176626762498627
-0.0874984235903597
-0.0249995325676493
0.0374993584550611
0.0999982494777715
0.0147450536854261
0.00642101688587599
0.00346926814392067
0.00284406340657711
0.00217921532897067
0.00292226056983693
0.00606120725271495
0.0141478596543215
0.107690704126118
0.0476442492203212
-0.0102440241702452
-0.0616104526331414
-0.0874984235903597
-0.0616104526331414
-0.0102440380435455
0.0476442492203212
0.10769240577934
0.0163457435161088
0.0069019382457842
0.00362416760581725
0.00293469859178054
0.00203995376864516
0.00286943860170986
0.00632742451364212
0.0153108020702411
0.0177086447664957
0.0753440407586632
0.0267762319930658
-0.0102440348649545
-0.0249995325676493
-0.0102440380435455
0.0267762319930658
0.0753470497159996
0.0220764471361553
0.0144191873823947
0.0064562323101726
0.00349825555403657
0.00285841580370079
0.00164174483585137
0.00247667238378101
0.00606940801768995
0.0163300969938668
0.0219833712227914
0.115162916619273
0.0753470515524859
0.047644257459825
0.0374993584550611
0.0476442492203212
0.0753440654356705
0.115162916619273
0.0168841418441928
0.00950149533905764
0.00484996572885557
0.00290450522890914
0.00247806488544159
0.000986543845441609
0.00157114503635507
0.00418871819962611
0.0123459242287641
0.0216658959551155
0.0220143678595155
0.01775603965646
0.107692403649896
0.0999982494777715
0.107690704126118
0.0220764487813613
0.0168841415334482
0.0104532952446975
0.00590744943790518
0.00329249724770648
0.00217469016689713
0.00194814022489435
0.000427059091095137
0.000677464037827432
0.00182057705884148
0.00548351922160429
0.0124073198222865
0.0164293044585134
0.0154336409731176
0.014282709452152
0.0147450506490019
0.0163457397502864
0.0144191859636049
0.00950149482788286
0.00590744928582209
0.00353328382993878
0.00212346841666581
0.00153847166605151
0.00144353105873746
0.000190186231106202
0.000277095058948627
0.000674185423778232
0.00191393164545796
0.00435954024340967
0.0062976519737906
0.00659677689246042
0.00635544847834156
0.00642101642739065
0.00690193699523584
0.00645623151106082
0.00484996533171959
0.00329249707877461
0.00212346836351556
0.00138852240991028
0.00110418435052382
0.00107963819039153
0.000133910130435717
0.000178383292239487
0.000365453142925164
0.000884690678518861
0.00189135314952886
0.00287947986558637
0.00332707045049541
0.00341449454168713
0.00346926838150329
0.00362416728107571
0.00349825517922938
0.00290450496526107
0.00217469001631824
0.00153847159384617
0.00110418432443381
0.000944913465814183
0.000943751948753961
0.000127724818875248
0.000167193958511145
0.000318307097026325
0.000693431179173348
0.00138814551256628
0.00213733200506432
0.00259200932401719
0.00276645467384574
0.00284406379412914
0.00293469850328854
0.00285841556269565
0.00247806466859796
0.0019481400800407
0.00144353097852196
0.00107963815413109
0.000943751938972629
0.000943751943863295
0.000640708159012781
0.000640708144763751
0.000786686045475108
0.00114351005412598
0.00159506058575697
0.00204492934064879
0.00234015986393586
0.00235127844372254
0.00223954847717324
0.00217921542848406
0.00203995421280428
0.00164174521417137
0.000986543905040589
0.000427059035601193
0.000190186198242573
0.000133910100603291
0.000127724788371961
0.000640708173261812
0.000647807710722412
0.000828262151529339
0.00126599686665526
0.00186195240948497
0.00252902260255142
0.00305771292803232
0.00313372274403792
0.00296177276016687
0.00292226052777879
0.00286943921604125
0.00247667303836883
0.00157114517191761
0.000677463953869759
0.000277095014413976
0.000178383253523765
0.000167193918581824
0.000786686145218322
0.000828262219424072
0.00115995480084688
0.00192793823900434
0.0030872069351927
0.00461528907189715
0.00618988072018403
0.00661008915071118
0.00611835615887991
0.00606120646414326
0.0063274257413742
0.00606940992095186
0.00418871871236432
0.00182057684431013
0.0006741853262715
0.00036545306778477
0.000318307021008111
0.00114351027456227
0.00126599705442484
0.00192793837144539
0.00340584743487582
0.00580023466631869
0.00939085059595785
0.0142983942299058
0.0162146680307405
0.0146078310929124
0.0141478557497854
0.0153108043125079
0.0163301029202246
0.0123459261797181
0.00548351859364163
0.00191393139109043
0.000884690508313145
0.000693431013567867
0.00159506100608372
0.0018619528216163
0.00308720737887993
0.00580023507613874
0.0103875081345344
0.0168307241323645
0.0220245848485158
0.107690704126118
0.0999982100198539
0.107692397036771
0.0177086212950025
0.0219833565102885
0.0216658935773386
0.0124073151040432
0.00435953871671275
0.00189135250514782
0.00138814503022615
0.00204493003664245
0.00252902337853192
0.00461529015470201
0.00939085199264767
0.0168307250842387
0.115162916619273
0.0753440343856191
0.047644257459825
0.0374993250322214
0.0476442492203212
0.0753470248394107
0.115162916619273
0.0220143747475679
0.0164292920606457
0.00629764780245846
0.00287947822115001
0.00213733089256393
0.00234016082997469
0.00305771417560685
0.00618988297236236
0.0142983980397426
0.0220245846499721
0.0753470266760432
0.0267762319930658
-0.0102440209935534
-0.0249995599554111
-0.0102440241702452
0.0267762319930658
0.0753440590624747
0.0177560561899759
0.0154336317533779
0.00659677288692688
0.00332706855710615
0.00259200794113287
0.00235127944370637
0.00313372429205373
0.00661009294153409
0.0162146777730133
0.107692394900957
0.047644257459825
-0.0102440209935534
-0.0616104526331414
-0.0874984449430436
-0.0616104526331414
-0.0102440348649545
0.047644257459825
0.107690704126118
0.0142827086909259
0.00635544703606107
0.00341449341562588
0.00276645367462137
0.00223954899911208
0.00296177375411953
0.00611835923099604
0.0146078406995049
0.0999982100198539
0.0374993250322214
-0.0249995599554111
-0.0874984449430436
-0.0176626762498627
-0.0874984235903597
-0.0249995325676493
0.0374993584550611
0.0999982494777715
0.0147450536854261
0.00642101688587599
0.00346926814392067
0.00284406340657712
0.00217921532897067
0.00292226056983693
0.00606120725271495
0.0141478596543215
0.107690704126118
0.0476442492203212
-0.0102440241702452
-0.0616104526331414
-0.0874984235903597
-0.0616104526331414
-0.0102440380435455
0.0476442492203212
0.10769240577934
0.0163457435161088
0.0069019382457842
0.00362416760581725
0.00293469859178054
0.00203995376864516
0.00286943860170986
0.00632742451364212
0.0153108020702411
0.0177086447664957
0.0753440407586632
0.0267762319930658
-0.0102440348649545
-0.0249995325676493
-0.0102440380435455
0.0267762319930658
0.0753470497159996
0.0220764471361553
0.0144191873823947
0.0064562323101726
0.00349825555403657
0.00285841580370079
0.00164174483585137
0.00247667238378101
0.00606940801768995
0.0163300969938668
0.0219833712227914
0.115162916619273
0.0753470515524859
0.047644257459825
0.0374993584550611
0.0476442492203212
0.0753440654356705
0.115162916619273
0.0168841418441928
0.00950149533905764
0.00484996572885557
0.00290450522890914
0.00247806488544159
0.000986543845441609
0.00157114503635507
0.00418871819962611
0.0123459242287641
0.0216658959551155
0.0220143678595155
0.01775603965646
0.107692403649896
0.0999982494777715
0.107690704126118
0.0220764487813613
0.0168841415334482
0.0104532952446975
0.00590744943790518
0.00329249724770648
0.00217469016689713
0.00194814022489435
0.000427059091095137
0.000677464037827432
0.00182057705884148
0.00548351922160429
0.0124073198222865
0.0164293044585134
0.0154336409731176
0.014282709452152
0.0147450506490019
0.0163457397502864
0.0144191859636049
0.00950149482788286
0.00590744928582209
0.00353328382993878
0.00212346841666581
0.00153847166605151
0.00144353105873746
0.000190186231106202
0.000277095058948627
0.000674185423778232
0.00191393164545796
0.00435954024340967
0.0062976519737906
0.00659677689246042
0.00635544847834156
0.00642101642739065
0.00690193699523584
0.00645623151106082
0.00484996533171959
0.00329249707877461
0.00212346836351556
0.00138852240991028
0.00110418435052382
0.00107963819039153
0.000133910130435717
0.000178383292239487
0.000365453142925164
0.000884690678518861
0.00189135314952886
0.00287947986558637
0.00332707045049541
0.00341449454168713
0.00346926838150329
0.00362416728107571
0.00349825517922938
0.00290450496526107
0.00217469001631824
0.00153847159384617
0.0011041843244338
0.000944913465814183
0.000943751948753961
0.000127724818875248
0.000167193958511145
0.000318307097026325
0.000693431179173348
0.00138814551256628
0.00213733200506432
0.00259200932401719
0.00276645467384574
0.00284406379412914
0.00293469850328854
0.00285841556269565
0.00247806466859796
0.0019481400800407
0.00144353097852196
0.00107963815413109
0.000943751938972629
0.000943751943863295
)
;

boundaryField
{
    left
    {
        type            zeroGradient;
    }
    right
    {
        type            zeroGradient;
    }
    front
    {
        type            zeroGradient;
    }
    back
    {
        type            zeroGradient;
    }
    emptyPatch
    {
        type            empty;
    }
}


// ************************************************************************* //
