/*--------------------------------*- C++ -*----------------------------------*\
| =========                 |                                                 |
| \\      /  F ield         | OpenFOAM: The Open Source CFD Toolbox           |
|  \\    /   O peration     | Version:  v1812                                 |
|   \\  /    A nd           | Web:      www.OpenFOAM.com                      |
|    \\/     M anipulation  |                                                 |
\*---------------------------------------------------------------------------*/
FoamFile
{
    version     2.0;
    format      ascii;
    class       volScalarField;
    location    "0";
    object      cellSignedDist0;
}
// * * * * * * * * * * * * * * * * * * * * * * * * * * * * * * * * * * * * * //

dimensions      [0 1 0 0 0 0 0];


internalField   nonuniform List<scalar> 
256
(
0
0
0
0
0
0
0
0
0
0
0
0
0
0
0
0
0
0
0
0
0
0
0
0
0
0
0
0
0
0
0
0
0
0
0
0
0
0
0
0
0
0
0
0
0
0
0
0
0
0
0
0
0
0
0
0
0
0
0
0
0
0
0
0
0
0
0
0
0
0.118825103062247
0.0879909765637508
0.0709740442391145
0.0709740400469185
0.0879913103608004
0.118825103062247
0
0
0
0
0
0
0
0
0
0.118825103062247
0.0709695743061695
0.0322175875244967
0.00934481283143368
0.00934481846501981
0.0322166562271378
0.0709695743061695
0.118825117415888
0
0
0
0
0
0
0
0
0.0879914328156203
0.0322166562271377
-0.0174171103200377
-0.0511763942561214
-0.0511764008292989
-0.0174171103200377
0.0322175875244969
0.0879910038796789
0
0
0
0
0
0
0
0
0.0709740442391146
0.00934481283143362
-0.0511763942561214
-0.105803794946245
-0.105803794946245
-0.0511763942561213
0.00934484028380916
0.0709740321932049
0
0
0
0
0
0
0
0
0.0709740400469185
0.00934481846501981
-0.0511764008292989
-0.105803794946245
-0.105803794946245
-0.0511764008292988
0.00934484591649577
0.0709740280005362
0
0
0
0
0
0
0
0
0.0879909608707453
0.0322175884833961
-0.0174171103200378
-0.0511763942561214
-0.0511764008292989
-0.0174171103200377
0.0322166562271378
0.0879913456914894
0
0
0
0
0
0
0
0
0.118825103062247
0.0709695743061695
0.0322166562271378
0.00934484028380905
0.00934484591649577
0.0322175884833962
0.0709695743061697
0.118825117415888
0
0
0
0
0
0
0
0
0
0.118825117415888
0.0879914678668913
0.0709740321932049
0.0709740280005361
0.0879909881865963
0.118825117415888
0
0
0
0
0
0
0
0
0
0
0
0
0
0
0
0
0
0
0
0
0
0
0
0
0
0
0
0
0
0
0
0
0
0
0
0
0
0
0
0
0
0
0
0
0
0
0
0
0
0
0
0
0
0
0
0
0
0
0
0
0
0
0
0
0
0
0
0
0
)
;

boundaryField
{
    left
    {
        type            zeroGradient;
    }
    right
    {
        type            zeroGradient;
    }
    front
    {
        type            zeroGradient;
    }
    back
    {
        type            zeroGradient;
    }
    emptyPatch
    {
        type            empty;
    }
}


// ************************************************************************* //
