/*--------------------------------*- C++ -*----------------------------------*\
| =========                 |                                                 |
| \\      /  F ield         | OpenFOAM: The Open Source CFD Toolbox           |
|  \\    /   O peration     | Version:  v1812                                 |
|   \\  /    A nd           | Web:      www.OpenFOAM.com                      |
|    \\/     M anipulation  |                                                 |
\*---------------------------------------------------------------------------*/
FoamFile
{
    version     2.0;
    format      ascii;
    class       volScalarField;
    location    "0";
    object      cellSignedDist;
}
// * * * * * * * * * * * * * * * * * * * * * * * * * * * * * * * * * * * * * //

dimensions      [0 1 0 0 0 0 0];


internalField   nonuniform List<scalar> 
256
(
0.000640708159012781
0.000640708130514721
0.000932663960435496
0.00135435614781646
0.00183576502369748
0.0022540936576001
0.00242622607027162
0.00227633081717347
0.002202766137173
0.00215566471979513
0.00192424370581343
0.00135924672252931
0.000613841087551863
0.000240276983650524
0.000140095412834622
0.000127724788371961
0.000640708187510842
0.000669106365851305
0.00107057014931584
0.00170639720905325
0.00255129125737271
0.00347494047153539
0.00407559151272218
0.00375674257598442
0.00361125151033658
0.00371935974381045
0.00367848869474599
0.00294471303038658
0.00136677984720268
0.000488957897073967
0.000239049764096791
0.000206663048791688
0.000932664102925801
0.00107057022140834
0.00182957246681204
0.00310521313083622
0.00498592614350862
0.00744899841517187
0.00975999248130667
0.00884803003283146
0.00825740051636719
0.00865681408605882
0.00925504044088155
0.00839939751779334
0.00404398445407469
0.00138258517888917
0.000586148465026066
0.000429950993224534
0.00135435644619874
0.00170639744716647
0.00310521335039473
0.00558339079146028
0.00952640859946963
0.0156020692256813
0.0243825167974632
0.0218681328113606
0.0194577610110905
0.0202194473856251
0.0231119153374663
0.0245540583847573
0.012386264362247
0.00412124037935569
0.00156575154109078
0.0009569110339112
0.0018357655659687
0.00255129182713129
0.00498592689082722
0.00952640927187275
0.0169138238753349
0.0252805948289723
0.0228331585419464
0.0159749000069537
0.0117702352334039
0.0123649605531245
0.015138161903794
0.0251292904151364
0.0245939611472138
0.00852779452735634
0.0032233684190482
0.0018193790265411
0.0022540945073162
0.00347494161371148
0.00744900028713806
0.0156020715207527
0.0252805956689946
0.0350786929317042
0.0322175875244967
0.00934481283143368
0.00934481846501981
0.0322166562271378
0.011160794375616
0.015158380442914
0.0231758669850074
0.00941954558300531
0.00401988268042399
0.00245528275858675
0.00242622715263318
0.00407559342876654
0.00975999655983335
0.0243825237912463
0.0228331476188947
0.0322166562271377
-0.0174171103200377
-0.002923608561267
-0.00744109852628847
-0.0174171103200377
0.0322175875244969
0.0123941505050266
0.0202958268269554
0.00884328761854333
0.00410437566573489
0.00272873312367899
0.00227633173477956
0.00375674485203565
0.00884803692550081
0.0218681538154726
0.0159748259268603
0.00934481283143362
-0.00292358597013605
-0.0164695369026437
-0.0188568962098115
-0.00743758085283371
0.00934484028380916
0.011802427800321
0.0195382861057646
0.00845343421244017
0.0040206906475259
0.00280417422556375
0.00220276626344461
0.00361125216621829
0.00825740298022939
0.0194577690768169
0.011770217654656
0.00934481846501981
-0.00744102485543549
-0.0188568948877017
-0.0164673769992938
-0.00291826200545441
0.00934484591649577
0.0160069757481803
0.0219468068549643
0.00904168756853536
0.00416825511500253
0.00288395258759048
0.00215566439449674
0.00371935945518807
0.00865681440922405
0.0202194521510156
0.0123649859557729
0.0322175884833961
-0.0174171103200378
-0.00743764880367166
-0.00291828270182866
-0.0174171103200377
0.0322166562271378
0.0228644259472165
0.0244556874660419
0.0099387921748935
0.0044590181247054
0.0029854445959706
0.00192424314279358
0.00367848741436105
0.00925503677579532
0.0231119049449294
0.0151382360142647
0.0111607973017757
0.0322166562271378
0.00934484028380905
0.00934484591649577
0.0322175884833962
0.0350972962204347
0.0253133516997713
0.0156723234315913
0.00760994645705223
0.00381717248403929
0.00273138701143098
0.00135924652890916
0.00294471244906024
0.00839939543154318
0.0245540508231994
0.0251292931087722
0.0151583129381819
0.0123941262110821
0.0118024524676311
0.016007056165761
0.0228644361898896
0.0253133515338531
0.0169552060914382
0.00959568615397036
0.00512802531361666
0.0028447186607141
0.0022247427594522
0.000613841161974057
0.00136678000547682
0.00404398491242418
0.0123862657478899
0.0245939741406005
0.0231758912505075
0.0202958282260685
0.0195382844882301
0.0219467983359699
0.0244556848019583
0.0156723225997442
0.0095956859087572
0.00566660282462424
0.00323948345940945
0.00195776155708572
0.0016715376903365
0.000240277020216218
0.000488957963642631
0.00138258535382229
0.0041212408722808
0.00852779852837502
0.00941955391457055
0.0088432905013239
0.00845343459298531
0.00904168517882243
0.00993879068439517
0.00760994576832187
0.00512802503470813
0.00323948337519877
0.00198756566052267
0.0013090629896454
0.00121552442713843
0.000140095441996187
0.000239049809939472
0.000586148567708534
0.00156575178802021
0.00322336978496266
0.00401988566725417
0.00410437748669307
0.00402069133236395
0.00416825460539092
0.00445901751233484
0.00381717207919138
0.00284471844465696
0.00195776146053458
0.0013090629578062
0.000948398031666846
0.000943751953644626
0.000127724818875248
0.000206663098147043
0.000429951095905607
0.000956911262441089
0.00181937976269146
0.00245528424743717
0.00272873440059721
0.00280417494709428
0.00288395264116401
0.00298544436541308
0.00273138675997823
0.0022247425772177
0.00167153758286371
0.00121552437418021
0.000943751934081963
0.000943751943863295
)
;

boundaryField
{
    left
    {
        type            zeroGradient;
    }
    right
    {
        type            zeroGradient;
    }
    front
    {
        type            zeroGradient;
    }
    back
    {
        type            zeroGradient;
    }
    emptyPatch
    {
        type            empty;
    }
}


// ************************************************************************* //
